/*--------------------------------*- C++ -*----------------------------------*\
| =========                 |                                                 |
| \\      /  F ield         | OpenFOAM: The Open Source CFD Toolbox           |
|  \\    /   O peration     | Version:  2.4.0                                 |
|   \\  /    A nd           | Web:      www.OpenFOAM.org                      |
|    \\/     M anipulation  |                                                 |
\*---------------------------------------------------------------------------*/
FoamFile
{
    version     2.0;
    format      ascii;
    class       volScalarField;
    object      T;
}
// * * * * * * * * * * * * * * * * * * * * * * * * * * * * * * * * * * * * * //

dimensions      [0 0 0 1 0 0 0];

internalField   uniform 289.34; 

boundaryField
{
    BottWalls    
    {
        type            fixedValue; 
        value           uniform 392.47; 
    }
    
    SideWalls
    {
        type            fixedValue;
        value           uniform 392.47; 
    }

    TopWalls
    {
        type            fixedValue;
        value           uniform 392.47;  
    }
    
    Inlet
    {
        type            cyclic;
    }
    Outlet
    {
        type            cyclic;
    }
}

// ************************************************************************* //

